LAMMPS (30 Jul 2021)
  using 1 OpenMP thread(s) per MPI task
# bulk water

units           metal
boundary        p p p
atom_style      atomic

neighbor        2.0 bin
neigh_modify    every 50 delay 0 check no

read_data	    ../lmp/water.lmp
Reading data file ...
  triclinic box = (0.0000000 0.0000000 0.0000000) to (12.444700 12.444700 12.444700) with tilt (0.0000000 0.0000000 0.0000000)
  1 by 1 by 1 MPI processor grid
  reading atoms ...
  192 atoms
  read_data CPU = 0.001 seconds
mass 		    1 16
mass		    2 2

replicate       1 1 3
Replicating atoms ...
  triclinic box = (0.0000000 0.0000000 0.0000000) to (12.444700 12.444700 37.334100) with tilt (0.0000000 0.0000000 0.0000000)
  1 by 1 by 1 MPI processor grid
  576 atoms
  replicate CPU = 0.000 seconds

# load the plugin at <install_prefix>/lib/libdeepmd_lmp.so
plugin load     ../../../dp/lib/libdeepmd_lmp.so
Loading plugin: deepmd pair style v2.0 by Han Wang
Loading plugin: compute deeptensor/atom v2.0 by Han Wang
Loading plugin: fix dplr v2.0 by Han Wang

pair_style	    deepmd ../../../model/water/graph-compress.pb
Summary of lammps deepmd module ...
  >>> Info of deepmd-kit:
  installed to:       /home/guozhuoqiang/deepmd-kit/dp
  source:             v0.9.3-1524-gbfd9616-dirty
  source branch:       master_
  source commit:      bfd9616
  source commit at:   2021-09-01 10:27:11 +0800
  surpport model ver.:1.0 
  build float prec:   double
  build with tf inc:  /home/guozhuoqiang/software/tensorflow-gpu-2.4/include;/home/guozhuoqiang/software/tensorflow-gpu-2.4/include
  build with tf lib:  /home/guozhuoqiang/software/tensorflow-gpu-2.4/lib/libtensorflow_cc.so;/home/guozhuoqiang/software/tensorflow-gpu-2.4/lib/libtensorflow_framework.so
  set tf intra_op_parallelism_threads: 1
  set tf inter_op_parallelism_threads: 1
  >>> Info of lammps module:
  use deepmd-kit at:  /home/guozhuoqiang/deepmd-kit/dp
  source:             v0.9.3-1524-gbfd9616-dirty
  source branch:      master_
  source commit:      bfd9616
  source commit at:   2021-09-01 10:27:11 +0800
  build float prec:   double
  build with tf inc:  /home/guozhuoqiang/software/tensorflow-gpu-2.4/include;/home/guozhuoqiang/software/tensorflow-gpu-2.4/include
  build with tf lib:  /home/guozhuoqiang/software/tensorflow-gpu-2.4/lib/libtensorflow_cc.so;/home/guozhuoqiang/software/tensorflow-gpu-2.4/lib/libtensorflow_framework.so
  >>> Info of model(s):
  using   1 model(s): ../../../model/water/graph-compress.pb 
  rcut in model:      6
  ntypes in model:    2
pair_coeff      * *

velocity        all create 330.0 23456789

fix             1 all nvt temp 330.0 330.0 0.5
timestep        0.0005
thermo_style    custom step pe ke etotal temp press vol
thermo          20
# dump		    1 all custom 100 water.dump id type x y z

run             99

CITE-CITE-CITE-CITE-CITE-CITE-CITE-CITE-CITE-CITE-CITE-CITE-CITE

Your simulation uses code contributions which should be cited:
- USER-DEEPMD package:
The log file lists these citations in BibTeX format.

CITE-CITE-CITE-CITE-CITE-CITE-CITE-CITE-CITE-CITE-CITE-CITE-CITE

Neighbor list info ...
  update every 50 steps, delay 0 steps, check no
  max neighbors/atom: 2000, page size: 100000
  master list distance cutoff = 8
  ghost atom cutoff = 8
  binsize = 4, bins = 4 4 10
  1 neighbor lists, perpetual/occasional/extra = 1 0 0
  (1) pair deepmd, perpetual
      attributes: , newton on
      pair build: full/bin/atomonly
      stencil: half/bin/3d/tri
      bin: standard
Setting up Verlet run ...
  Unit style    : metal
  Current step  : 0
  Time step     : 0.0005
Per MPI rank memory allocation (min/avg/max) = 2.692 | 2.692 | 2.692 Mbytes
Step PotEng KinEng TotEng Temp Press Volume 
       0    -89745.26    24.527113   -89720.733          330    3366.7188    5781.9529 
      20   -89754.525     33.77999   -89720.745    454.49282   -11505.329    5781.9529 
      40   -89765.794     45.01936   -89720.774    605.71291   -7430.7444    5781.9529 
      60   -89730.131    63.094402   -89667.036    848.90354    2748.1766    5781.9529 
      80   -89741.128    73.928044     -89667.2    994.66476    7362.0956    5781.9529 
      99   -89747.099    79.608588   -89667.491    1071.0936    2448.7254    5781.9529 
Loop time of 0.779581 on 1 procs for 99 steps with 576 atoms

Performance: 5.486 ns/day, 4.375 hours/ns, 126.991 timesteps/s
76.0% CPU use with 1 MPI tasks x 1 OpenMP threads

MPI task timing breakdown:
Section |  min time  |  avg time  |  max time  |%varavg| %total
---------------------------------------------------------------
Pair    | 0.76811    | 0.76811    | 0.76811    |   0.0 | 98.53
Neigh   | 0.0067374  | 0.0067374  | 0.0067374  |   0.0 |  0.86
Comm    | 0.0023272  | 0.0023272  | 0.0023272  |   0.0 |  0.30
Output  | 0.00015546 | 0.00015546 | 0.00015546 |   0.0 |  0.02
Modify  | 0.0017352  | 0.0017352  | 0.0017352  |   0.0 |  0.22
Other   |            | 0.0005147  |            |       |  0.07

Nlocal:        576.000 ave         576 max         576 min
Histogram: 1 0 0 0 0 0 0 0 0 0
Nghost:        3704.00 ave        3704 max        3704 min
Histogram: 1 0 0 0 0 0 0 0 0 0
Neighs:         0.00000 ave           0 max           0 min
Histogram: 1 0 0 0 0 0 0 0 0 0

Total # of neighbors = 0
Ave neighs/atom = 0.0000000
Neighbor list builds = 1
Dangerous builds not checked
Total wall time: 0:00:04
